<?xml version="1.0"?>
<VTKFile type="UnstructuredGrid" version="0.1">
 <UnstructuredGrid>
<Piece NumberOfPoints="9" NumberOfCells="9">
<Points>
<DataArray type="Float64" NumberOfComponents="3" format="ascii">
0 0.6 0.00
0.2 0.6 0.00
0.4 0.6 0.00
0 0.8 0.00
0.2 0.8 0.00
0.4 0.8 0.00
0 1 0.00
0.2 1 0.00
0.4 1 0.00
</DataArray>
 </Points>
<Cells>
<DataArray type="UInt32" Name="connectivity" format="ascii">
0 1 2 3 4 5 6 7 8 
</DataArray>
<DataArray type="UInt32" Name="offsets" format="ascii">
1 2 3 4 5 6 7 8 9 
</DataArray>
<DataArray type="UInt8" Name="types" format="ascii">
1 1 1 1 1 1 1 1 1 
</DataArray>
</Cells>
<PointData>
<DataArray type="Float64" Name="Temperature" NumberOfComponents="1" format="ascii">
0 0 0 
0 0 0 
0 0 0 
 </DataArray>
</PointData>
  </Piece>
 </UnstructuredGrid>
</VTKFile>