<?xml version="1.0"?>
<VTKFile type="UnstructuredGrid" version="0.1">
 <UnstructuredGrid>
<Piece NumberOfPoints="9" NumberOfCells="9">
<Points>
<DataArray type="Float64" NumberOfComponents="3" format="ascii">
0.6 0.6 0.00
0.8 0.6 0.00
1 0.6 0.00
0.6 0.8 0.00
0.8 0.8 0.00
1 0.8 0.00
0.6 1 0.00
0.8 1 0.00
1 1 0.00
</DataArray>
 </Points>
<Cells>
<DataArray type="UInt32" Name="connectivity" format="ascii">
0 1 2 3 4 5 6 7 8 
</DataArray>
<DataArray type="UInt32" Name="offsets" format="ascii">
1 2 3 4 5 6 7 8 9 
</DataArray>
<DataArray type="UInt8" Name="types" format="ascii">
1 1 1 1 1 1 1 1 1 
</DataArray>
</Cells>
<PointData>
<DataArray type="Float64" Name="Temperature" NumberOfComponents="1" format="ascii">
1.34978e-31 -1.79971e-31 0 
-1.79971e-31 2.39962e-31 0 
0 0 0 
 </DataArray>
</PointData>
  </Piece>
 </UnstructuredGrid>
</VTKFile>