<?xml version="1.0"?>
<VTKFile type="UnstructuredGrid" version="0.1">
 <UnstructuredGrid>
<Piece NumberOfPoints="36" NumberOfCells="36">
<Points>
<DataArray type="Float64" NumberOfComponents="3" format="ascii">
0 0 0.00
0.2 0 0.00
0.4 0 0.00
0.6 0 0.00
0.8 0 0.00
1 0 0.00
0 0.2 0.00
0.2 0.2 0.00
0.4 0.2 0.00
0.6 0.2 0.00
0.8 0.2 0.00
1 0.2 0.00
0 0.4 0.00
0.2 0.4 0.00
0.4 0.4 0.00
0.6 0.4 0.00
0.8 0.4 0.00
1 0.4 0.00
0 0.6 0.00
0.2 0.6 0.00
0.4 0.6 0.00
0.6 0.6 0.00
0.8 0.6 0.00
1 0.6 0.00
0 0.8 0.00
0.2 0.8 0.00
0.4 0.8 0.00
0.6 0.8 0.00
0.8 0.8 0.00
1 0.8 0.00
0 1 0.00
0.2 1 0.00
0.4 1 0.00
0.6 1 0.00
0.8 1 0.00
1 1 0.00
</DataArray>
 </Points>
<Cells>
<DataArray type="UInt32" Name="connectivity" format="ascii">
0 1 2 3 4 5 6 7 8 9 10 11 12 13 14 15 16 17 18 19 20 21 22 23 24 25 26 27 28 29 30 31 32 33 34 35 
</DataArray>
<DataArray type="UInt32" Name="offsets" format="ascii">
1 2 3 4 5 6 7 8 9 10 11 12 13 14 15 16 17 18 19 20 21 22 23 24 25 26 27 28 29 30 31 32 33 34 35 36 
</DataArray>
<DataArray type="UInt8" Name="types" format="ascii">
1 1 1 1 1 1 1 1 1 1 1 1 1 1 1 1 1 1 1 1 1 1 1 1 1 1 1 1 1 1 1 1 1 1 1 1 
</DataArray>
</Cells>
<PointData>
<DataArray type="Float64" Name="Temperature" NumberOfComponents="1" format="ascii">
0 0 -0 0 0 0 
0 1.49976e-32 -2.99952e-32 4.49928e-32 0 0 
-0 -2.99952e-32 5.99904e-32 -8.99856e-32 0 0 
0 4.49928e-32 -8.99856e-32 1.34978e-31 0 0 
0 0 0 0 0 0 
0 0 0 0 0 0 
 </DataArray>
</PointData>
  </Piece>
 </UnstructuredGrid>
</VTKFile>